# vtk DataFile Version 3.0
VTK Output
ASCII
DATASET POLYDATA
POINTS  153  float
1.4640001  0.2440000  0.0000000
1.4000000  0.2000000  0.0000000
1.5000000  0.1000000  0.0000000
1.6000000  0.4000000  0.0000000
1.3000000  0.2000000  0.0000000
1.7000000  0.5000000  0.0000000
1.4000000  0.2000000  0.0000000
1.4000000  0.3000000  0.0000000
1.9000000  0.2000000  0.0000000
1.5000000  0.2000000  0.0000000
1.3000000  0.4000000  0.0000000
1.3000000  0.2000000  0.0000000
1.6000000  0.2000000  0.0000000
1.4000000  0.1000000  0.0000000
1.6000000  0.2000000  0.0000000
1.5000000  0.2000000  0.0000000
1.5000000  0.3000000  0.0000000
1.4000000  0.2000000  0.0000000
1.5000000  0.1000000  0.0000000
1.5000000  0.4000000  0.0000000
1.4000000  0.2000000  0.0000000
1.4000000  0.2000000  0.0000000
1.5000000  0.2000000  0.0000000
1.5000000  0.2000000  0.0000000
1.9000000  0.4000000  0.0000000
1.5000000  0.1000000  0.0000000
1.5000000  0.1000000  0.0000000
1.7000000  0.4000000  0.0000000
1.4000000  0.2000000  0.0000000
1.7000000  0.2000000  0.0000000
1.6000000  0.6000000  0.0000000
1.6000000  0.2000000  0.0000000
1.4000000  0.3000000  0.0000000
1.0000000  0.2000000  0.0000000
1.3000000  0.3000000  0.0000000
1.7000000  0.3000000  0.0000000
1.5000000  0.4000000  0.0000000
1.5000000  0.4000000  0.0000000
1.3000000  0.2000000  0.0000000
1.5000000  0.2000000  0.0000000
1.2000000  0.2000000  0.0000000
1.4000000  0.2000000  0.0000000
1.5000000  0.2000000  0.0000000
1.4000000  0.3000000  0.0000000
1.6000000  0.2000000  0.0000000
1.4000000  0.2000000  0.0000000
1.3000000  0.2000000  0.0000000
1.3000000  0.3000000  0.0000000
1.6000000  0.2000000  0.0000000
1.2000000  0.2000000  0.0000000
1.1000000  0.1000000  0.0000000
5.1885247  2.3573771  0.0000000
6.6999998  3.0999999  0.0000000
4.9000001  2.4000001  0.0000000
5.4000001  3.9000001  0.0000000
6.9000001  3.0999999  0.0000000
5.5000000  4.1999998  0.0000000
5.5999999  2.5000000  0.0000000
5.1999998  2.7000000  0.0000000
4.5000000  1.5000000  0.0000000
4.6999998  1.2000000  0.0000000
6.4000001  2.9000001  0.0000000
4.6999998  1.4000000  0.0000000
4.1999998  1.5000000  0.0000000
4.5999999  1.5000000  0.0000000
5.5999999  3.0000000  0.0000000
4.5000000  1.5000000  0.0000000
5.1999998  4.0999999  0.0000000
4.5000000  1.3000000  0.0000000
4.0000000  1.3000000  0.0000000
5.8000002  4.0000000  0.0000000
4.9000001  1.5000000  0.0000000
5.5999999  2.9000001  0.0000000
4.8000002  1.8000000  0.0000000
5.0000000  2.0000000  0.0000000
4.3000002  3.0000000  0.0000000
5.5000000  3.5000000  0.0000000
5.4000001  3.9000001  0.0000000
6.0999999  2.9000001  0.0000000
6.0999999  2.8000000  0.0000000
6.5999999  2.9000001  0.0000000
4.5000000  2.3000000  0.0000000
3.5999999  1.3000000  0.0000000
6.4000001  3.2000000  0.0000000
6.5000000  2.8000000  0.0000000
3.5000000  1.0000000  0.0000000
5.5000000  2.3000000  0.0000000
6.1999998  2.2000000  0.0000000
7.0000000  3.2000000  0.0000000
6.3000002  3.3000000  0.0000000
5.9000001  3.2000000  0.0000000
3.3000000  1.0000000  0.0000000
5.9000001  3.0000000  0.0000000
5.6999998  2.8000000  0.0000000
5.6999998  3.8000000  0.0000000
5.6999998  4.4000001  0.0000000
6.0000000  2.2000000  0.0000000
6.3000002  2.5000000  0.0000000
5.8000002  2.7000000  0.0000000
5.4000001  3.7000000  0.0000000
6.0999999  2.8000000  0.0000000
3.9000001  1.1000000  0.0000000
4.9000001  1.5000000  0.0000000
4.0000000  1.0000000  0.0000000
4.0999999  1.0000000  0.0000000
3.9000001  1.4000000  0.0000000
4.0000000  1.3000000  0.0000000
4.5000000  1.5000000  0.0000000
4.3000002  1.3000000  0.0000000
4.6999998  1.6000000  0.0000000
4.4000001  1.4000000  0.0000000
4.6999998  1.4000000  0.0000000
4.5999999  1.3000000  0.0000000
4.9205132  3.3358972  0.0000000
5.0999999  3.8000000  0.0000000
5.4000001  3.4000001  0.0000000
5.4000001  3.4000001  0.0000000
5.0999999  3.7000000  0.0000000
4.5999999  3.0999999  0.0000000
5.0000000  3.4000001  0.0000000
5.1999998  3.4000001  0.0000000
5.0999999  3.5000000  0.0000000
5.3000002  3.7000000  0.0000000
5.0000000  3.0000000  0.0000000
5.0999999  3.8000000  0.0000000
4.5999999  3.5999999  0.0000000
5.0999999  3.8000000  0.0000000
4.8000002  3.0000000  0.0000000
5.0000000  3.2000000  0.0000000
4.9000001  3.0999999  0.0000000
4.8000002  3.0000000  0.0000000
4.8000002  3.4000001  0.0000000
4.4000001  3.2000000  0.0000000
4.4000001  3.0000000  0.0000000
4.4000001  2.9000001  0.0000000
4.6999998  3.2000000  0.0000000
4.5999999  3.4000001  0.0000000
4.8000002  3.0999999  0.0000000
5.0000000  3.4000001  0.0000000
4.6999998  3.2000000  0.0000000
5.0000000  3.3000000  0.0000000
4.9000001  3.0999999  0.0000000
4.9000001  3.0999999  0.0000000
4.8000002  3.4000001  0.0000000
5.0000000  3.5000000  0.0000000
4.9000001  3.0000000  0.0000000
4.5999999  3.2000000  0.0000000
5.0999999  3.5000000  0.0000000
5.0999999  3.3000000  0.0000000
5.0000000  3.5000000  0.0000000
5.1999998  3.5000000  0.0000000
5.0000000  3.5999999  0.0000000
5.0999999  3.4000001  0.0000000
POINT_DATA 153
SCALARS color float 1
LOOKUP_TABLE default
1.0000000
100000.0000000
100000.0000000
100000.0000000
100000.0000000
100000.0000000
100000.0000000
100000.0000000
100000.0000000
100000.0000000
100000.0000000
100000.0000000
100000.0000000
100000.0000000
100000.0000000
100000.0000000
100000.0000000
100000.0000000
100000.0000000
100000.0000000
100000.0000000
100000.0000000
100000.0000000
100000.0000000
100000.0000000
100000.0000000
100000.0000000
100000.0000000
100000.0000000
100000.0000000
100000.0000000
100000.0000000
100000.0000000
100000.0000000
100000.0000000
100000.0000000
100000.0000000
100000.0000000
100000.0000000
100000.0000000
100000.0000000
100000.0000000
100000.0000000
100000.0000000
100000.0000000
100000.0000000
100000.0000000
100000.0000000
100000.0000000
100000.0000000
100000.0000000
1.0000000
200000.0000000
200000.0000000
200000.0000000
200000.0000000
200000.0000000
200000.0000000
200000.0000000
200000.0000000
200000.0000000
200000.0000000
200000.0000000
200000.0000000
200000.0000000
200000.0000000
200000.0000000
200000.0000000
200000.0000000
200000.0000000
200000.0000000
200000.0000000
200000.0000000
200000.0000000
200000.0000000
200000.0000000
200000.0000000
200000.0000000
200000.0000000
200000.0000000
200000.0000000
200000.0000000
200000.0000000
200000.0000000
200000.0000000
200000.0000000
200000.0000000
200000.0000000
200000.0000000
200000.0000000
200000.0000000
200000.0000000
200000.0000000
200000.0000000
200000.0000000
200000.0000000
200000.0000000
200000.0000000
200000.0000000
200000.0000000
200000.0000000
200000.0000000
200000.0000000
200000.0000000
200000.0000000
200000.0000000
200000.0000000
200000.0000000
200000.0000000
200000.0000000
200000.0000000
200000.0000000
200000.0000000
1.0000000
300000.0000000
300000.0000000
300000.0000000
300000.0000000
300000.0000000
300000.0000000
300000.0000000
300000.0000000
300000.0000000
300000.0000000
300000.0000000
300000.0000000
300000.0000000
300000.0000000
300000.0000000
300000.0000000
300000.0000000
300000.0000000
300000.0000000
300000.0000000
300000.0000000
300000.0000000
300000.0000000
300000.0000000
300000.0000000
300000.0000000
300000.0000000
300000.0000000
300000.0000000
300000.0000000
300000.0000000
300000.0000000
300000.0000000
300000.0000000
300000.0000000
300000.0000000
300000.0000000
300000.0000000
300000.0000000
