# vtk DataFile Version 3.0
VTK Output
ASCII
DATASET POLYDATA
POINTS  153  float
1796921.6250000  2511889.5000000  0.0000000
1291644.0000000  2306304.0000000  0.0000000
1050117.0000000  2767564.0000000  0.0000000
1895460.0000000  4381977.0000000  0.0000000
929354.0000000  3228825.0000000  0.0000000
1291644.0000000  2536934.0000000  0.0000000
567064.0000000  2306304.0000000  0.0000000
2378513.0000000  4612607.0000000  0.0000000
980698.0000000  1122251.0000000  0.0000000
2257750.0000000  5535128.0000000  0.0000000
1895460.0000000  4381977.0000000  0.0000000
1037374.0000000  1384319.0000000  0.0000000
1895460.0000000  3228825.0000000  0.0000000
1533170.0000000  3920716.0000000  0.0000000
929354.0000000  3690086.0000000  0.0000000
1533170.0000000  2998195.0000000  0.0000000
1377429.0000000  1122251.0000000  0.0000000
1207402.0000000  1384319.0000000  0.0000000
1653933.0000000  3459455.0000000  0.0000000
1653933.0000000  3228825.0000000  0.0000000
1050117.0000000  2767564.0000000  0.0000000
1170880.0000000  2536934.0000000  0.0000000
1895460.0000000  3228825.0000000  0.0000000
1653933.0000000  4843237.0000000  0.0000000
2016223.0000000  5073868.0000000  0.0000000
1291644.0000000  2536934.0000000  0.0000000
980698.0000000  1122251.0000000  0.0000000
2016223.0000000  3459455.0000000  0.0000000
1291644.0000000  2536934.0000000  0.0000000
1037374.0000000  1253285.0000000  0.0000000
1037374.0000000  1253285.0000000  0.0000000
687827.0000000  2767564.0000000  0.0000000
1207402.0000000  1646387.0000000  0.0000000
1377429.0000000  1384319.0000000  0.0000000
2016223.0000000  691891.0000000  0.0000000
2851001.0000000  2563625.0000000  0.0000000
2964353.0000000  2956727.0000000  0.0000000
1291644.0000000  922522.0000000  0.0000000
2170891.0000000  2170523.0000000  0.0000000
2907677.0000000  2563625.0000000  0.0000000
1653933.0000000  1614413.0000000  0.0000000
2284243.0000000  2170523.0000000  0.0000000
2499277.0000000  2306304.0000000  0.0000000
2680973.0000000  2825693.0000000  0.0000000
2620040.0000000  461261.0000000  0.0000000
2567622.0000000  2170523.0000000  0.0000000
2740803.0000000  2075673.0000000  0.0000000
2136987.0000000  2075673.0000000  0.0000000
2794325.0000000  2694659.0000000  0.0000000
2136987.0000000  2306304.0000000  0.0000000
2624298.0000000  2170523.0000000  0.0000000
2136987.0000000  1153152.0000000  0.0000000
2982330.0000000  1153152.0000000  0.0000000
3103093.0000000  2075673.0000000  0.0000000
1730148.2500000  2181852.5000000  0.0000000
1533170.0000000  3459455.0000000  0.0000000
1150726.0000000  1122251.0000000  0.0000000
1150726.0000000  1122251.0000000  0.0000000
1150726.0000000  991217.0000000  0.0000000
1895460.0000000  3920716.0000000  0.0000000
1150726.0000000  1122251.0000000  0.0000000
1170880.0000000  3228825.0000000  0.0000000
1094050.0000000  991217.0000000  0.0000000
1533170.0000000  3459455.0000000  0.0000000
2257750.0000000  4151346.0000000  0.0000000
1150726.0000000  1253285.0000000  0.0000000
1264077.0000000  1122251.0000000  0.0000000
1264077.0000000  1515353.0000000  0.0000000
1170880.0000000  3228825.0000000  0.0000000
1150726.0000000  1122251.0000000  0.0000000
1150726.0000000  991217.0000000  0.0000000
1150726.0000000  991217.0000000  0.0000000
1412407.0000000  2767564.0000000  0.0000000
1150726.0000000  991217.0000000  0.0000000
687827.0000000  2306304.0000000  0.0000000
1533170.0000000  3228825.0000000  0.0000000
1150726.0000000  1122251.0000000  0.0000000
1412407.0000000  3459455.0000000  0.0000000
808590.0000000  691891.0000000  0.0000000
1412407.0000000  3459455.0000000  0.0000000
1150726.0000000  1122251.0000000  0.0000000
1412407.0000000  2998195.0000000  0.0000000
3077704.0000000  2825693.0000000  0.0000000
2567622.0000000  2563625.0000000  0.0000000
2907677.0000000  2825693.0000000  0.0000000
2982330.0000000  2998195.0000000  0.0000000
2510946.0000000  2694659.0000000  0.0000000
1412407.0000000  0.0000000  0.0000000
2340918.0000000  2563625.0000000  0.0000000
3021028.0000000  3218795.0000000  0.0000000
2740803.0000000  1845043.0000000  0.0000000
2567622.0000000  2563625.0000000  0.0000000
3077704.0000000  2825693.0000000  0.0000000
2740803.0000000  1845043.0000000  0.0000000
2737649.0000000  2563625.0000000  0.0000000
1711062.0000000  1971618.6250000  0.0000000
1094050.0000000  1122251.0000000  0.0000000
1094050.0000000  1122251.0000000  0.0000000
1037374.0000000  1122251.0000000  0.0000000
929354.0000000  2536934.0000000  0.0000000
1412407.0000000  3690086.0000000  0.0000000
1094050.0000000  1122251.0000000  0.0000000
1264077.0000000  1384319.0000000  0.0000000
1094050.0000000  1253285.0000000  0.0000000
1412407.0000000  3228825.0000000  0.0000000
687827.0000000  2075673.0000000  0.0000000
1094050.0000000  1122251.0000000  0.0000000
1207402.0000000  1122251.0000000  0.0000000
1170880.0000000  2306304.0000000  0.0000000
924022.0000000  991217.0000000  0.0000000
1150726.0000000  1384319.0000000  0.0000000
1094050.0000000  1253285.0000000  0.0000000
1264077.0000000  1253285.0000000  0.0000000
1533170.0000000  4151346.0000000  0.0000000
1150726.0000000  1384319.0000000  0.0000000
867347.0000000  1122251.0000000  0.0000000
1412407.0000000  2306304.0000000  0.0000000
1207402.0000000  1122251.0000000  0.0000000
1412407.0000000  3228825.0000000  0.0000000
1094050.0000000  1122251.0000000  0.0000000
1207402.0000000  1122251.0000000  0.0000000
1207402.0000000  1122251.0000000  0.0000000
1150726.0000000  1384319.0000000  0.0000000
1094050.0000000  1122251.0000000  0.0000000
1037374.0000000  1122251.0000000  0.0000000
1037374.0000000  1122251.0000000  0.0000000
1037374.0000000  1122251.0000000  0.0000000
1533170.0000000  4151346.0000000  0.0000000
1170880.0000000  2306304.0000000  0.0000000
1094050.0000000  1253285.0000000  0.0000000
1533170.0000000  4151346.0000000  0.0000000
1207402.0000000  1122251.0000000  0.0000000
929354.0000000  2767564.0000000  0.0000000
1094050.0000000  1122251.0000000  0.0000000
1774697.0000000  3920716.0000000  0.0000000
1094050.0000000  1122251.0000000  0.0000000
3827673.0000000  2767564.0000000  0.0000000
2964353.0000000  2694659.0000000  0.0000000
3103093.0000000  2767564.0000000  0.0000000
2851001.0000000  2825693.0000000  0.0000000
3706910.0000000  2536934.0000000  0.0000000
3223856.0000000  1845043.0000000  0.0000000
2257750.0000000  1845043.0000000  0.0000000
3344620.0000000  2075673.0000000  0.0000000
2964353.0000000  2694659.0000000  0.0000000
3465383.0000000  2536934.0000000  0.0000000
2851001.0000000  2825693.0000000  0.0000000
2378513.0000000  1614413.0000000  0.0000000
2861566.0000000  461261.0000000  0.0000000
2851001.0000000  2825693.0000000  0.0000000
2510946.0000000  2301557.0000000  0.0000000
2499277.0000000  2767564.0000000  0.0000000
2964353.0000000  2432591.0000000  0.0000000
POINT_DATA 153
SCALARS color float 1
LOOKUP_TABLE default
1.0000000
100000.0000000
100000.0000000
100000.0000000
100000.0000000
100000.0000000
100000.0000000
100000.0000000
100000.0000000
100000.0000000
100000.0000000
100000.0000000
100000.0000000
100000.0000000
100000.0000000
100000.0000000
100000.0000000
100000.0000000
100000.0000000
100000.0000000
100000.0000000
100000.0000000
100000.0000000
100000.0000000
100000.0000000
100000.0000000
100000.0000000
100000.0000000
100000.0000000
100000.0000000
100000.0000000
100000.0000000
100000.0000000
100000.0000000
100000.0000000
100000.0000000
100000.0000000
100000.0000000
100000.0000000
100000.0000000
100000.0000000
100000.0000000
100000.0000000
100000.0000000
100000.0000000
100000.0000000
100000.0000000
100000.0000000
100000.0000000
100000.0000000
100000.0000000
100000.0000000
100000.0000000
100000.0000000
1.0000000
200000.0000000
200000.0000000
200000.0000000
200000.0000000
200000.0000000
200000.0000000
200000.0000000
200000.0000000
200000.0000000
200000.0000000
200000.0000000
200000.0000000
200000.0000000
200000.0000000
200000.0000000
200000.0000000
200000.0000000
200000.0000000
200000.0000000
200000.0000000
200000.0000000
200000.0000000
200000.0000000
200000.0000000
200000.0000000
200000.0000000
200000.0000000
200000.0000000
200000.0000000
200000.0000000
200000.0000000
200000.0000000
200000.0000000
200000.0000000
200000.0000000
200000.0000000
200000.0000000
200000.0000000
200000.0000000
200000.0000000
1.0000000
300000.0000000
300000.0000000
300000.0000000
300000.0000000
300000.0000000
300000.0000000
300000.0000000
300000.0000000
300000.0000000
300000.0000000
300000.0000000
300000.0000000
300000.0000000
300000.0000000
300000.0000000
300000.0000000
300000.0000000
300000.0000000
300000.0000000
300000.0000000
300000.0000000
300000.0000000
300000.0000000
300000.0000000
300000.0000000
300000.0000000
300000.0000000
300000.0000000
300000.0000000
300000.0000000
300000.0000000
300000.0000000
300000.0000000
300000.0000000
300000.0000000
300000.0000000
300000.0000000
300000.0000000
300000.0000000
300000.0000000
300000.0000000
300000.0000000
300000.0000000
300000.0000000
300000.0000000
300000.0000000
300000.0000000
300000.0000000
300000.0000000
300000.0000000
300000.0000000
300000.0000000
300000.0000000
300000.0000000
300000.0000000
300000.0000000
300000.0000000
