# vtk DataFile Version 3.0
VTK Output
ASCII
DATASET POLYDATA
POINTS  615  float
8.6297979  16.2662468  11.0000000
8.6160002  16.1119995  11.0000000
8.3859997  16.2399998  11.0000000
8.3299999  16.0660000  11.0000000
8.2480001  16.1539993  11.0000000
8.8439999  16.3619995  11.0000000
8.9740000  16.5300007  11.0000000
8.8100004  16.4580002  11.0000000
8.3299999  16.4880009  11.0000000
8.3979998  16.2819996  11.0000000
8.9040003  15.8459997  11.0000000
8.6840000  16.7759991  11.0000000
8.7060003  16.3740005  11.0000000
8.6619997  16.3540001  11.0000000
8.4580002  16.4519997  11.0000000
8.5179996  15.8400002  11.0000000
8.6199999  16.6739998  11.0000000
9.1520004  16.0939999  11.0000000
8.8780003  16.0039997  11.0000000
8.4680004  16.3780003  11.0000000
8.8439999  16.0259991  11.0000000
8.1040001  15.9619999  11.0000000
8.5660000  17.0119991  11.0000000
8.3979998  16.5760002  11.0000000
8.9420004  16.1900005  11.0000000
8.5019999  16.1660004  11.0000000
8.5240002  16.3920002  11.0000000
8.8079996  15.5900002  11.0000000
8.1199999  16.1100006  11.0000000
9.0640001  16.4559994  11.0000000
8.5880003  16.2399998  11.0000000
8.8260002  16.4740009  11.0000000
8.4680004  15.9280005  11.0000000
8.5419998  15.9180002  11.0000000
8.9040003  16.4020004  11.0000000
8.3760004  16.1119995  11.0000000
8.6140003  15.9080000  11.0000000
8.8260002  16.0839996  11.0000000
8.8299999  16.3600006  11.0000000
8.7779999  16.4860001  11.0000000
8.5819998  16.7740002  11.0000000
12.0636511  10.0344000  2.0000000
11.9879999  9.9259996  2.0000000
12.3479996  10.4879999  2.0000000
11.7720003  9.9239998  2.0000000
11.2460003  10.1219997  2.0000000
12.5299997  10.0000000  2.0000000
12.3500004  9.7980003  2.0000000
12.0959997  9.8459997  2.0000000
11.6280003  10.2860003  2.0000000
11.9519997  9.6820002  2.0000000
12.1040001  10.3879995  2.0000000
12.3400002  9.9180002  2.0000000
11.7360001  10.2900000  2.0000000
12.0819998  10.0439997  2.0000000
11.9980001  9.6759996  2.0000000
12.3739996  10.0179996  2.0000000
12.0400000  10.0279999  2.0000000
11.8459997  9.6339998  2.0000000
12.0439997  9.3579998  2.0000000
12.2740002  9.9359999  2.0000000
12.2700005  9.7919998  2.0000000
12.6479998  9.8140001  2.0000000
11.8940001  10.0120001  2.0000000
11.5019999  10.0080004  2.0000000
11.5939999  10.0780001  2.0000000
11.8079996  10.0579996  2.0000000
12.2200003  9.7959995  2.0000000
12.3999996  10.1560001  2.0000000
12.0640001  9.6160002  2.0000000
11.5900002  9.7119999  2.0000000
11.9060001  9.8199997  2.0000000
12.2519999  9.9379997  2.0000000
12.1140003  10.9040003  2.0000000
12.2760000  10.9899998  2.0000000
12.1339998  9.4820004  2.0000000
11.7360001  10.1219997  2.0000000
12.1759996  10.3640003  2.0000000
12.3640003  10.1759996  2.0000000
12.4580002  10.1800003  2.0000000
12.1639996  11.0179996  2.0000000
12.2279997  9.9779997  2.0000000
9.4897947  7.9785123  7.0000000
10.0660000  8.1899996  7.0000000
9.2740002  7.5660000  7.0000000
9.4399996  8.0579996  7.0000000
9.5200005  8.2819996  7.0000000
9.3579998  8.2419996  7.0000000
9.3339996  7.6580000  7.0000000
9.3820000  7.6640000  7.0000000
9.6940002  7.4480000  7.0000000
9.5679998  8.0520000  7.0000000
9.6000004  7.8740001  7.0000000
9.5419998  7.6880002  7.0000000
9.7360001  7.5520000  7.0000000
9.4820004  7.7659998  7.0000000
10.2860003  7.8920002  7.0000000
9.4580002  8.5400000  7.0000000
9.2220001  8.0019999  7.0000000
9.8780003  8.0539999  7.0000000
9.7880001  7.6840000  7.0000000
8.8920002  8.1660004  7.0000000
9.4040003  8.2279997  7.0000000
9.1459999  8.0439997  7.0000000
9.1099997  8.0139999  7.0000000
9.4239998  7.8299999  7.0000000
9.1459999  8.1580000  7.0000000
9.7600002  7.9320002  7.0000000
9.3859997  7.7459998  7.0000000
9.6219997  8.0039997  7.0000000
9.5839996  8.4779997  7.0000000
9.7860003  8.0660000  7.0000000
9.5760002  7.8660002  7.0000000
9.4040003  7.7900000  7.0000000
9.4300003  7.6760001  7.0000000
9.2900000  8.4720001  7.0000000
9.5860004  7.9099998  7.0000000
9.5579996  7.9480000  7.0000000
8.8439999  8.0240002  7.0000000
9.4320002  8.6099997  7.0000000
9.4320002  8.1219997  7.0000000
9.6619997  7.8660002  7.0000000
14.0711498  5.0120001  15.0000000
13.9980001  5.4980001  15.0000000
14.4399996  5.3299999  15.0000000
13.9860001  5.0500002  15.0000000
14.2720003  4.9400001  15.0000000
14.1199999  4.8699999  15.0000000
14.7440004  5.2480001  15.0000000
14.1079998  4.9180002  15.0000000
13.8500004  4.2459998  15.0000000
13.8940001  4.1599998  15.0000000
14.3660002  5.1040001  15.0000000
14.3000002  5.3680000  15.0000000
13.8360004  4.5100002  15.0000000
13.9580002  5.3499999  15.0000000
14.3059998  5.0599999  15.0000000
14.0039997  4.9200001  15.0000000
13.6359997  5.2179999  15.0000000
13.6680002  5.3400002  15.0000000
14.0039997  5.2280002  15.0000000
14.2779999  5.2600002  15.0000000
13.6639996  5.0159998  15.0000000
14.3640003  4.7480001  15.0000000
14.1980000  4.8039999  15.0000000
14.3699999  4.8839998  15.0000000
14.0200005  5.6139998  15.0000000
14.3179998  4.5920000  15.0000000
13.8420000  4.9840002  15.0000000
14.5279999  4.8119998  15.0000000
14.2040005  5.0640001  15.0000000
14.2180004  5.5440001  15.0000000
14.3999996  5.2960000  15.0000000
14.4099998  4.6560001  15.0000000
13.6700001  5.4060001  15.0000000
13.4680004  4.9200001  15.0000000
14.1540003  4.7680001  15.0000000
14.0179996  5.1820002  15.0000000
13.9779997  5.3559999  15.0000000
13.3319998  4.5920000  15.0000000
14.3360004  5.1760001  15.0000000
14.3199997  4.5900002  15.0000000
13.2659998  4.8579998  15.0000000
16.3966999  9.9344997  9.0000000
16.4880009  10.5419998  9.0000000
16.5839996  9.7539997  9.0000000
16.6700001  10.4980001  9.0000000
16.1000004  9.7019997  9.0000000
16.4179993  9.9659996  9.0000000
16.2019997  9.6999998  9.0000000
16.6219997  9.6520004  9.0000000
16.4360008  9.4099998  9.0000000
16.2199993  9.4940004  9.0000000
16.2700005  10.1280003  9.0000000
16.2259998  9.6700001  9.0000000
16.0039997  10.2799997  9.0000000
16.2779999  9.4519997  9.0000000
16.4480000  9.5660000  9.0000000
16.5699997  10.2100000  9.0000000
16.6739998  9.6379995  9.0000000
16.2679996  9.5220003  9.0000000
16.5720005  9.6239996  9.0000000
16.1000004  9.9300003  9.0000000
16.2959995  9.4580002  9.0000000
16.5319996  9.7760000  9.0000000
17.1240005  9.7259998  9.0000000
16.1280003  9.8879995  9.0000000
16.1299992  9.7480001  9.0000000
16.4039993  10.0719995  9.0000000
16.4559994  10.1120005  9.0000000
16.4099998  10.1879997  9.0000000
16.9820004  10.5959997  9.0000000
16.5020008  9.9799995  9.0000000
16.6259995  10.1619997  9.0000000
15.9300003  10.1059999  9.0000000
16.3139992  10.7159996  9.0000000
16.4699993  9.6980000  9.0000000
16.5860004  10.1739998  9.0000000
16.6119995  10.2180004  9.0000000
16.1620007  10.3020000  9.0000000
16.3659992  9.7959995  9.0000000
16.2240009  10.0200005  9.0000000
16.4820004  9.9860001  9.0000000
15.9820004  9.9200001  9.0000000
8.1241484  10.8286495  5.0000000
8.2700005  10.7159996  5.0000000
8.0039997  10.5740004  5.0000000
7.6220002  10.1479998  5.0000000
8.3540001  10.3800001  5.0000000
8.1160002  10.6980000  5.0000000
8.1660004  10.6980000  5.0000000
8.1639996  10.5340004  5.0000000
8.5819998  11.0640001  5.0000000
7.9879999  11.2279997  5.0000000
7.9080000  11.3459997  5.0000000
8.0419998  10.7900000  5.0000000
8.6320000  11.1239996  5.0000000
8.2799997  10.1040001  5.0000000
8.2240000  10.3160000  5.0000000
8.0679998  10.1180000  5.0000000
7.9780002  11.1300001  5.0000000
8.3859997  10.7720003  5.0000000
7.9419999  11.0760002  5.0000000
8.0819998  10.6759996  5.0000000
8.2139997  10.6199999  5.0000000
7.8699999  10.8380003  5.0000000
8.0959997  10.7139997  5.0000000
7.9400001  10.9960003  5.0000000
8.0959997  10.8780003  5.0000000
8.4720001  11.0819998  5.0000000
8.1980000  11.3979998  5.0000000
8.5039997  11.3780003  5.0000000
8.2860003  10.7340002  5.0000000
7.9660001  10.7200003  5.0000000
8.0500002  10.7460003  5.0000000
8.4940004  10.5839996  5.0000000
7.6680002  10.9239998  5.0000000
8.1239996  10.9320002  5.0000000
7.8820000  10.8319998  5.0000000
8.1639996  11.1120005  5.0000000
8.2480001  10.9940004  5.0000000
8.0799999  10.9919996  5.0000000
8.1180000  11.0120001  5.0000000
7.8140001  10.8719997  5.0000000
7.8740001  11.2959995  5.0000000
13.9487991  14.9468508  10.0000000
14.2040005  14.9759998  10.0000000
14.2939997  14.9960003  10.0000000
13.8739996  14.9540005  10.0000000
14.1680002  15.2760000  10.0000000
13.7639999  15.2119999  10.0000000
13.9860001  14.7700005  10.0000000
14.1300001  15.1099997  10.0000000
13.9519997  14.8680000  10.0000000
14.2379999  15.2959995  10.0000000
13.9480000  14.2180004  10.0000000
14.2779999  15.1520004  10.0000000
13.7299995  15.1280003  10.0000000
13.3620005  14.9320002  10.0000000
14.3999996  15.0400000  10.0000000
14.0979996  14.8999996  10.0000000
13.6520004  14.6020002  10.0000000
14.1379995  14.6300001  10.0000000
14.0740004  14.3839998  10.0000000
14.3859997  14.6859999  10.0000000
13.8559999  15.2060003  10.0000000
13.5459995  14.8439999  10.0000000
13.9580002  15.3219995  10.0000000
13.6920004  14.9580002  10.0000000
13.8160000  14.6020002  10.0000000
13.4080000  15.3400002  10.0000000
14.1300001  14.8380003  10.0000000
13.7860003  14.7259998  10.0000000
14.0640001  15.0719995  10.0000000
13.9160004  14.9960003  10.0000000
14.1940002  15.0400000  10.0000000
13.8100004  14.5260000  10.0000000
14.1140003  15.3660002  10.0000000
13.8879995  15.4359999  10.0000000
13.3879995  15.3900003  10.0000000
13.6800003  14.9879999  10.0000000
13.7080002  15.0480003  10.0000000
13.8339996  14.7779999  10.0000000
13.9219999  14.8020000  10.0000000
14.3620005  14.6440001  10.0000000
14.2040005  14.8219995  10.0000000
8.6142511  3.7442002  14.0000000
8.7959995  3.8880000  14.0000000
8.6320000  3.8199999  14.0000000
8.3800001  3.1780000  14.0000000
8.3739996  3.7479999  14.0000000
8.7679996  4.3200002  14.0000000
8.3760004  3.7880001  14.0000000
8.2980003  3.3780000  14.0000000
8.2939997  3.3800001  14.0000000
[...]
POINT_DATA 615
SCALARS color float 1
LOOKUP_TABLE default
1.0000000
100000.0000000
100000.0000000
100000.0000000
100000.0000000
100000.0000000
100000.0000000
100000.0000000
100000.0000000
100000.0000000
100000.0000000
100000.0000000
100000.0000000
100000.0000000
100000.0000000
100000.0000000
100000.0000000
100000.0000000
100000.0000000
100000.0000000
100000.0000000
100000.0000000
100000.0000000
100000.0000000
100000.0000000
100000.0000000
100000.0000000
100000.0000000
100000.0000000
100000.0000000
100000.0000000
100000.0000000
100000.0000000
100000.0000000
100000.0000000
100000.0000000
100000.0000000
100000.0000000
100000.0000000
100000.0000000
100000.0000000
1.0000000
200000.0000000
200000.0000000
200000.0000000
200000.0000000
200000.0000000
200000.0000000
200000.0000000
200000.0000000
200000.0000000
200000.0000000
200000.0000000
200000.0000000
200000.0000000
200000.0000000
200000.0000000
200000.0000000
200000.0000000
200000.0000000
200000.0000000
200000.0000000
200000.0000000
200000.0000000
200000.0000000
200000.0000000
200000.0000000
200000.0000000
200000.0000000
200000.0000000
200000.0000000
200000.0000000
200000.0000000
200000.0000000
200000.0000000
200000.0000000
200000.0000000
200000.0000000
200000.0000000
200000.0000000
200000.0000000
200000.0000000
1.0000000
300000.0000000
300000.0000000
300000.0000000
300000.0000000
300000.0000000
300000.0000000
300000.0000000
300000.0000000
300000.0000000
300000.0000000
300000.0000000
300000.0000000
300000.0000000
300000.0000000
300000.0000000
300000.0000000
300000.0000000
300000.0000000
300000.0000000
300000.0000000
300000.0000000
300000.0000000
300000.0000000
300000.0000000
300000.0000000
300000.0000000
300000.0000000
300000.0000000
300000.0000000
300000.0000000
300000.0000000
300000.0000000
300000.0000000
300000.0000000
300000.0000000
300000.0000000
300000.0000000
300000.0000000
300000.0000000
1.0000000
400000.0000000
400000.0000000
400000.0000000
400000.0000000
400000.0000000
400000.0000000
400000.0000000
400000.0000000
400000.0000000
400000.0000000
400000.0000000
400000.0000000
400000.0000000
400000.0000000
400000.0000000
400000.0000000
400000.0000000
400000.0000000
400000.0000000
400000.0000000
400000.0000000
400000.0000000
400000.0000000
400000.0000000
400000.0000000
400000.0000000
400000.0000000
400000.0000000
400000.0000000
400000.0000000
400000.0000000
400000.0000000
400000.0000000
400000.0000000
400000.0000000
400000.0000000
400000.0000000
400000.0000000
400000.0000000
400000.0000000
1.0000000
500000.0000000
500000.0000000
500000.0000000
500000.0000000
500000.0000000
500000.0000000
500000.0000000
500000.0000000
500000.0000000
500000.0000000
500000.0000000
500000.0000000
500000.0000000
500000.0000000
500000.0000000
500000.0000000
500000.0000000
500000.0000000
500000.0000000
500000.0000000
500000.0000000
500000.0000000
500000.0000000
500000.0000000
500000.0000000
500000.0000000
500000.0000000
500000.0000000
500000.0000000
500000.0000000
500000.0000000
500000.0000000
500000.0000000
500000.0000000
500000.0000000
500000.0000000
500000.0000000
500000.0000000
500000.0000000
500000.0000000
1.0000000
600000.0000000
600000.0000000
600000.0000000
600000.0000000
600000.0000000
600000.0000000
600000.0000000
600000.0000000
600000.0000000
600000.0000000
600000.0000000
600000.0000000
600000.0000000
600000.0000000
600000.0000000
600000.0000000
600000.0000000
600000.0000000
600000.0000000
600000.0000000
600000.0000000
600000.0000000
600000.0000000
600000.0000000
600000.0000000
600000.0000000
600000.0000000
600000.0000000
600000.0000000
600000.0000000
600000.0000000
600000.0000000
600000.0000000
600000.0000000
600000.0000000
600000.0000000
600000.0000000
600000.0000000
600000.0000000
600000.0000000
1.0000000
700000.0000000
700000.0000000
700000.0000000
700000.0000000
700000.0000000
700000.0000000
700000.0000000
700000.0000000
700000.0000000
700000.0000000
700000.0000000
700000.0000000
700000.0000000
700000.0000000
700000.0000000
700000.0000000
700000.0000000
700000.0000000
700000.0000000
700000.0000000
700000.0000000
700000.0000000
700000.0000000
700000.0000000
700000.0000000
700000.0000000
700000.0000000
700000.0000000
700000.0000000
700000.0000000
700000.0000000
700000.0000000
700000.0000000
700000.0000000
700000.0000000
700000.0000000
700000.0000000
700000.0000000
700000.0000000
700000.0000000
1.0000000
800000.0000000
800000.0000000
800000.0000000
800000.0000000
800000.0000000
800000.0000000
800000.0000000
800000.0000000
800000.0000000
800000.0000000
800000.0000000
800000.0000000
800000.0000000
800000.0000000
800000.0000000
800000.0000000
800000.0000000
800000.0000000
800000.0000000
800000.0000000
800000.0000000
800000.0000000
800000.0000000
800000.0000000
800000.0000000
800000.0000000
800000.0000000
800000.0000000
800000.0000000
800000.0000000
800000.0000000
800000.0000000
800000.0000000
800000.0000000
800000.0000000
800000.0000000
800000.0000000
800000.0000000
800000.0000000
800000.0000000
1.0000000
900000.0000000
900000.0000000
900000.0000000
900000.0000000
900000.0000000
900000.0000000
900000.0000000
900000.0000000
900000.0000000
900000.0000000
900000.0000000
900000.0000000
900000.0000000
900000.0000000
900000.0000000
900000.0000000
900000.0000000
900000.0000000
900000.0000000
900000.0000000
900000.0000000
900000.0000000
900000.0000000
900000.0000000
900000.0000000
900000.0000000
900000.0000000
900000.0000000
900000.0000000
900000.0000000
900000.0000000
900000.0000000
900000.0000000
900000.0000000
900000.0000000
900000.0000000
900000.0000000
900000.0000000
900000.0000000
900000.0000000
1.0000000
1000000.0000000
1000000.0000000
1000000.0000000
1000000.0000000
1000000.0000000
1000000.0000000
1000000.0000000
1000000.0000000
1000000.0000000
1000000.0000000
1000000.0000000
1000000.0000000
1000000.0000000
1000000.0000000
1000000.0000000
1000000.0000000
1000000.0000000
1000000.0000000
1000000.0000000
1000000.0000000
1000000.0000000
1000000.0000000
1000000.0000000
1000000.0000000
1000000.0000000
1000000.0000000
1000000.0000000
1000000.0000000
1000000.0000000
1000000.0000000
1000000.0000000
1000000.0000000
1000000.0000000
1000000.0000000
1000000.0000000
1000000.0000000
1000000.0000000
1000000.0000000
1000000.0000000
1000000.0000000
1.0000000
1100000.0000000
1100000.0000000
1100000.0000000
1100000.0000000
1100000.0000000
1100000.0000000
1100000.0000000
1100000.0000000
1100000.0000000
1100000.0000000
1100000.0000000
1100000.0000000
1100000.0000000
1100000.0000000
1100000.0000000
1100000.0000000
1100000.0000000
1100000.0000000
1100000.0000000
1100000.0000000
1100000.0000000
1100000.0000000
1100000.0000000
1100000.0000000
1100000.0000000
1100000.0000000
1100000.0000000
1100000.0000000
1100000.0000000
1100000.0000000
1100000.0000000
1100000.0000000
1100000.0000000
1100000.0000000
1100000.0000000
1100000.0000000
1100000.0000000
1100000.0000000
1100000.0000000
1100000.0000000
1100000.0000000
1.0000000
1200000.0000000
1200000.0000000
1200000.0000000
1200000.0000000
1200000.0000000
1200000.0000000
1200000.0000000
1200000.0000000
1200000.0000000
1200000.0000000
1200000.0000000
1200000.0000000
1200000.0000000
1200000.0000000
1200000.0000000
1200000.0000000
1200000.0000000
1200000.0000000
1200000.0000000
1200000.0000000
1200000.0000000
1200000.0000000
1200000.0000000
1200000.0000000
1200000.0000000
1200000.0000000
1200000.0000000
1200000.0000000
1200000.0000000
1200000.0000000
1200000.0000000
1200000.0000000
1200000.0000000
1200000.0000000
1200000.0000000
1200000.0000000
1200000.0000000
1200000.0000000
1200000.0000000
1200000.0000000
1.0000000
1300000.0000000
1300000.0000000
1300000.0000000
1300000.0000000
1300000.0000000
1300000.0000000
1300000.0000000
1300000.0000000
1300000.0000000
1300000.0000000
1300000.0000000
1300000.0000000
1300000.0000000
1300000.0000000
1300000.0000000
1300000.0000000
1300000.0000000
1300000.0000000
1300000.0000000
1300000.0000000
1300000.0000000
1300000.0000000
1300000.0000000
1300000.0000000
1300000.0000000
1300000.0000000
1300000.0000000
1300000.0000000
1300000.0000000
1300000.0000000
1300000.0000000
1300000.0000000
1300000.0000000
1300000.0000000
1300000.0000000
1300000.0000000
1300000.0000000
1300000.0000000
1300000.0000000
1.0000000
1400000.0000000
1400000.0000000
1400000.0000000
1400000.0000000
1400000.0000000
1400000.0000000
1400000.0000000
1400000.0000000
1400000.0000000
1400000.0000000
1400000.0000000
1400000.0000000
1400000.0000000
1400000.0000000
1400000.0000000
1400000.0000000
1400000.0000000
1400000.0000000
1400000.0000000
1400000.0000000
1400000.0000000
1400000.0000000
1400000.0000000
1400000.0000000
1400000.0000000
1400000.0000000
1400000.0000000
1400000.0000000
1400000.0000000
1400000.0000000
1400000.0000000
1400000.0000000
1400000.0000000
1400000.0000000
1400000.0000000
1400000.0000000
1400000.0000000
1400000.0000000
1400000.0000000
1400000.0000000
1400000.0000000
1.0000000
1500000.0000000
1500000.0000000
1500000.0000000
1500000.0000000
1500000.0000000
1500000.0000000
1500000.0000000
1500000.0000000
1500000.0000000
1500000.0000000
1500000.0000000
1500000.0000000
1500000.0000000
1500000.0000000
1500000.0000000
1500000.0000000
1500000.0000000
1500000.0000000
1500000.0000000
1500000.0000000
1500000.0000000
1500000.0000000
1500000.0000000
1500000.0000000
1500000.0000000
1500000.0000000
1500000.0000000
1500000.0000000
1500000.0000000
1500000.0000000
1500000.0000000
1500000.0000000
1500000.0000000
1500000.0000000
1500000.0000000
1500000.0000000
1500000.0000000
1500000.0000000
1500000.0000000
1500000.0000000
