# vtk DataFile Version 3.0
VTK Output
ASCII
DATASET POLYDATA
POINTS  315  float
19.0544109  17.8299026  2.1274509
31.9500008  7.9499998  3.0000000
31.1499996  7.3000002  3.0000000
30.4500008  6.6500001  3.0000000
29.7000008  6.0000000  3.0000000
9.3000002  20.2999992  3.0000000
9.6499996  20.7999992  3.0000000
10.1999998  21.2500000  3.0000000
10.6000004  21.6499996  3.0000000
11.1000004  22.1499996  3.0000000
11.5500002  22.4500008  3.0000000
11.9499998  22.7000008  3.0000000
12.5500002  23.0000000  3.0000000
13.0500002  23.2000008  3.0000000
13.4499998  23.3999996  3.0000000
14.0000000  23.5499992  3.0000000
14.5500002  23.6000004  3.0000000
15.1000004  23.7500000  3.0000000
15.6999998  23.7500000  3.0000000
16.1499996  23.8500004  3.0000000
16.7000008  23.7999992  3.0000000
17.1499996  23.7500000  3.0000000
23.1000004  19.0000000  3.0000000
23.1499996  18.6499996  3.0000000
23.2000008  18.2500000  3.0000000
23.2000008  18.0499992  3.0000000
23.2000008  17.7999992  3.0000000
23.1000004  17.4500008  3.0000000
23.0499992  17.1499996  3.0000000
22.8999996  16.8999996  3.0000000
22.8500004  16.6000004  3.0000000
22.7000008  16.3999996  3.0000000
22.6000004  16.2000008  3.0000000
22.5499992  16.0499992  3.0000000
22.3999996  15.9499998  3.0000000
22.3500004  15.8000002  3.0000000
22.2000008  15.6499996  3.0000000
22.1499996  15.5500002  3.0000000
22.0000000  15.3999996  3.0000000
21.8999996  15.3000002  3.0000000
21.8500004  15.2500000  3.0000000
21.7500000  15.1499996  3.0000000
21.6499996  15.0500002  3.0000000
21.5499992  15.0000000  3.0000000
21.5000000  14.8999996  3.0000000
30.2999992  13.0000000  1.0000000
29.8999996  12.3000002  1.0000000
29.5000000  11.7500000  1.0000000
29.0000000  11.1499996  1.0000000
28.5000000  10.6000004  1.0000000
28.0000000  10.1000004  1.0000000
27.5499992  9.6499996  1.0000000
26.8999996  9.1000004  1.0000000
26.2500000  8.8000002  1.0000000
12.5500002  17.8500004  1.0000000
12.8000002  18.0499992  1.0000000
13.1000004  18.3999996  1.0000000
13.3000002  18.6000004  1.0000000
13.5500002  18.8500004  1.0000000
13.8000002  19.0499992  1.0000000
14.1499996  19.2500000  1.0000000
14.4499998  19.5000000  1.0000000
14.8500004  19.5499992  1.0000000
15.0000000  19.7000008  1.0000000
15.2500000  19.7000008  1.0000000
15.5500002  19.8500004  1.0000000
15.9499998  19.8999996  1.0000000
16.2000008  19.8999996  1.0000000
16.5499992  19.8999996  1.0000000
16.8500004  19.8999996  1.0000000
17.2000008  19.8999996  1.0000000
17.3999996  19.7999992  1.0000000
17.6499996  19.7500000  1.0000000
17.7999992  19.7000008  1.0000000
18.0000000  19.6000004  1.0000000
18.2000008  19.5499992  1.0000000
5.5999999  22.5000000  2.0000000
6.1999998  23.2999992  2.0000000
6.8000002  23.8500004  2.0000000
7.3499999  24.4500008  2.0000000
8.0500002  24.9500008  2.0000000
8.8000002  25.4500008  2.0000000
9.5000000  26.0000000  2.0000000
10.1999998  26.3500004  2.0000000
10.8999996  26.7500000  2.0000000
11.6999998  27.0000000  2.0000000
12.4499998  27.2500000  2.0000000
13.3000002  27.6000004  2.0000000
27.0000000  15.8999996  2.0000000
26.7500000  15.3500004  2.0000000
26.5499992  14.8500004  2.0000000
26.2999992  14.4499998  2.0000000
25.9500008  14.1000004  2.0000000
25.7500000  13.6999998  2.0000000
25.3500004  13.3000002  2.0000000
25.0499992  12.9499998  2.0000000
24.7999992  12.6999998  2.0000000
24.3999996  12.4499998  2.0000000
24.0499992  12.1999998  2.0000000
23.5499992  11.8500004  2.0000000
23.2000008  11.6499996  2.0000000
22.7500000  11.3999996  2.0000000
22.2999992  11.3000002  2.0000000
24.4291134  23.3145561  1.8607595
17.7500000  23.7500000  3.0000000
18.2000008  23.6000004  3.0000000
18.6499996  23.5000000  3.0000000
19.1000004  23.3500004  3.0000000
19.6000004  23.1499996  3.0000000
20.0000000  22.9500008  3.0000000
20.3999996  22.7000008  3.0000000
20.7000008  22.5499992  3.0000000
21.0000000  22.1499996  3.0000000
21.4500008  21.9500008  3.0000000
21.7500000  21.5499992  3.0000000
22.0000000  21.2500000  3.0000000
22.2500000  21.0000000  3.0000000
22.5000000  20.7000008  3.0000000
22.6499996  20.3500004  3.0000000
22.7500000  20.0499992  3.0000000
22.8999996  19.6499996  3.0000000
23.0000000  19.3500004  3.0000000
19.3500004  31.6499996  1.0000000
20.3500004  31.4500008  1.0000000
21.3500004  31.1000004  1.0000000
22.2500000  30.8999996  1.0000000
23.2000008  30.4500008  1.0000000
23.9500008  30.0499992  1.0000000
24.8999996  29.6499996  1.0000000
25.6000004  29.0499992  1.0000000
26.3500004  28.5000000  1.0000000
27.1499996  27.8999996  1.0000000
27.7500000  27.3500004  1.0000000
28.2999992  26.6000004  1.0000000
28.9500008  25.8500004  1.0000000
29.5000000  25.1499996  1.0000000
29.9500008  24.4500008  1.0000000
30.3999996  23.7000008  1.0000000
30.6000004  22.8999996  1.0000000
30.8999996  22.1000004  1.0000000
31.2500000  21.2999992  1.0000000
31.3500004  20.5499992  1.0000000
31.5000000  19.7000008  1.0000000
31.5499992  18.8999996  1.0000000
31.6499996  18.1499996  1.0000000
31.6000004  17.3500004  1.0000000
31.4500008  16.5499992  1.0000000
31.2999992  15.8000002  1.0000000
31.1499996  15.0500002  1.0000000
30.8999996  14.3500004  1.0000000
30.6000004  13.6499996  1.0000000
14.0500002  27.6000004  2.0000000
14.6999998  27.7500000  2.0000000
15.5500002  27.7500000  2.0000000
16.3999996  27.7500000  2.0000000
17.1000004  27.7500000  2.0000000
17.8999996  27.7500000  2.0000000
18.5499992  27.7000008  2.0000000
19.3500004  27.6000004  2.0000000
20.1000004  27.3500004  2.0000000
20.7000008  27.1000004  2.0000000
21.4500008  26.7999992  2.0000000
22.0499992  26.5000000  2.0000000
22.7000008  26.1499996  2.0000000
23.3500004  25.6499996  2.0000000
23.7999992  25.2999992  2.0000000
24.2999992  24.8500004  2.0000000
24.7500000  24.3500004  2.0000000
25.2500000  23.9500008  2.0000000
25.6499996  23.4500008  2.0000000
26.0499992  23.0000000  2.0000000
26.2000008  22.2999992  2.0000000
26.6000004  21.7999992  2.0000000
26.7500000  21.2500000  2.0000000
27.0000000  20.7000008  2.0000000
27.1499996  20.1499996  2.0000000
27.1499996  19.6000004  2.0000000
27.3500004  19.1000004  2.0000000
27.3500004  18.4500008  2.0000000
27.3999996  18.0000000  2.0000000
27.2999992  17.3999996  2.0000000
27.1499996  16.8999996  2.0000000
27.0000000  16.3999996  2.0000000
14.2740459  10.9851141  2.0229008
28.8999996  5.5500002  3.0000000
28.0499992  5.0000000  3.0000000
27.2000008  4.5500002  3.0000000
26.3500004  4.1500001  3.0000000
25.3999996  3.8499999  3.0000000
24.6000004  3.5999999  3.0000000
23.6000004  3.3000000  3.0000000
22.7500000  3.1500001  3.0000000
21.8500004  3.0500000  3.0000000
20.8999996  3.0000000  3.0000000
20.0000000  2.9000001  3.0000000
19.1000004  3.0000000  3.0000000
18.2000008  3.2000000  3.0000000
17.2999992  3.2500000  3.0000000
16.5499992  3.5000000  3.0000000
15.6999998  3.7000000  3.0000000
14.8500004  4.0999999  3.0000000
14.1499996  4.4000001  3.0000000
13.3999996  4.7500000  3.0000000
12.6999998  5.1999998  3.0000000
12.0500002  5.6500001  3.0000000
11.4499998  6.1500001  3.0000000
10.8999996  6.6500001  3.0000000
10.3000002  7.2500000  3.0000000
9.6999998  7.8499999  3.0000000
9.3500004  8.3500004  3.0000000
8.8999996  9.0500002  3.0000000
8.5500002  9.6499996  3.0000000
8.1499996  10.3500004  3.0000000
7.9499998  10.9499998  3.0000000
7.7500000  11.6999998  3.0000000
7.5500002  12.3500004  3.0000000
7.4499998  13.0000000  3.0000000
7.3499999  13.7500000  3.0000000
7.3000002  14.3500004  3.0000000
7.3499999  14.9499998  3.0000000
7.3499999  15.7500000  3.0000000
7.5500002  16.3500004  3.0000000
7.6999998  16.9500008  3.0000000
7.8000002  17.5499992  3.0000000
8.0500002  18.1499996  3.0000000
8.3000002  18.7500000  3.0000000
8.6499996  19.2999992  3.0000000
8.8999996  19.8500004  3.0000000
25.7000008  8.3999996  1.0000000
25.1499996  8.0500002  1.0000000
24.5000000  7.7500000  1.0000000
23.8999996  7.6500001  1.0000000
23.1499996  7.4000001  1.0000000
22.5000000  7.3000002  1.0000000
21.8999996  7.0999999  1.0000000
21.2500000  7.0500002  1.0000000
20.5000000  7.0000000  1.0000000
19.8999996  6.9499998  1.0000000
19.2500000  7.0500002  1.0000000
18.7500000  7.0999999  1.0000000
18.0499992  7.2500000  1.0000000
17.5000000  7.3499999  1.0000000
16.8999996  7.5999999  1.0000000
16.3500004  7.8000002  1.0000000
15.8000002  8.0500002  1.0000000
15.3999996  8.3500004  1.0000000
14.8999996  8.6999998  1.0000000
14.4499998  8.8999996  1.0000000
13.9499998  9.3000002  1.0000000
13.6000004  9.6499996  1.0000000
13.2500000  10.1000004  1.0000000
12.9499998  10.5500002  1.0000000
12.6499996  10.8999996  1.0000000
12.3500004  11.3999996  1.0000000
12.1999998  11.7500000  1.0000000
11.9499998  12.1999998  1.0000000
11.8000002  12.6499996  1.0000000
11.7500000  13.0500002  1.0000000
11.5500002  13.6000004  1.0000000
11.5500002  14.0000000  1.0000000
11.5500002  14.3500004  1.0000000
11.5500002  14.6999998  1.0000000
11.6000004  15.2500000  1.0000000
11.6499996  15.6999998  1.0000000
11.8000002  16.0499992  1.0000000
11.8500004  16.5000000  1.0000000
12.0000000  16.7500000  1.0000000
12.1499996  17.2000008  1.0000000
12.3000002  17.6000004  1.0000000
3.9000001  9.6000004  2.0000000
3.5500000  10.6499996  2.0000000
3.3499999  11.3999996  2.0000000
3.0999999  12.3500004  2.0000000
3.0999999  13.2500000  2.0000000
3.0500000  14.1499996  2.0000000
3.0000000  15.1000004  2.0000000
3.0999999  16.0000000  2.0000000
3.2000000  16.8500004  2.0000000
3.4500000  17.7500000  2.0000000
3.7000000  18.7000008  2.0000000
3.9500000  19.5499992  2.0000000
4.3499999  20.2500000  2.0000000
4.6999998  21.1000004  2.0000000
5.1500001  21.7999992  2.0000000
21.8999996  11.1000004  2.0000000
21.4500008  11.0500002  2.0000000
21.1000004  11.0000000  2.0000000
20.7000008  10.9499998  2.0000000
20.3500004  10.9499998  2.0000000
19.9500008  11.0000000  2.0000000
19.5499992  11.0000000  2.0000000
19.1499996  11.0500002  2.0000000
18.8500004  11.1000004  2.0000000
18.4500008  11.2500000  2.0000000
18.1499996  11.3500004  2.0000000
17.8500004  11.5000000  2.0000000
17.5000000  11.6999998  2.0000000
17.2000008  11.9499998  2.0000000
17.0000000  12.0500002  2.0000000
16.7500000  12.1999998  2.0000000
16.6499996  12.3500004  2.0000000
16.5000000  12.5000000  2.0000000
16.3500004  12.6999998  2.0000000
16.2000008  12.8000002  2.0000000
16.1499996  12.9499998  2.0000000
16.0000000  13.1000004  2.0000000
15.9499998  13.2500000  2.0000000
15.8999996  13.3999996  2.0000000
15.8000002  13.5000000  2.0000000
15.8000002  13.6499996  2.0000000
15.7500000  13.8500004  2.0000000
15.6499996  14.0500002  2.0000000
15.6499996  14.2500000  2.0000000
15.6499996  14.5000000  2.0000000
15.6499996  14.6000004  2.0000000
POINT_DATA 315
SCALARS color float 1
LOOKUP_TABLE default
1.0000000
100000.0000000
100000.0000000
100000.0000000
100000.0000000
100000.0000000
100000.0000000
100000.0000000
100000.0000000
100000.0000000
100000.0000000
100000.0000000
100000.0000000
100000.0000000
100000.0000000
100000.0000000
100000.0000000
100000.0000000
100000.0000000
100000.0000000
100000.0000000
100000.0000000
100000.0000000
100000.0000000
100000.0000000
100000.0000000
100000.0000000
100000.0000000
100000.0000000
100000.0000000
100000.0000000
100000.0000000
100000.0000000
100000.0000000
100000.0000000
100000.0000000
100000.0000000
100000.0000000
100000.0000000
100000.0000000
100000.0000000
100000.0000000
100000.0000000
100000.0000000
100000.0000000
100000.0000000
100000.0000000
100000.0000000
100000.0000000
100000.0000000
100000.0000000
100000.0000000
100000.0000000
100000.0000000
100000.0000000
100000.0000000
100000.0000000
100000.0000000
100000.0000000
100000.0000000
100000.0000000
100000.0000000
100000.0000000
100000.0000000
100000.0000000
100000.0000000
100000.0000000
100000.0000000
100000.0000000
100000.0000000
100000.0000000
100000.0000000
100000.0000000
100000.0000000
100000.0000000
100000.0000000
100000.0000000
100000.0000000
100000.0000000
100000.0000000
100000.0000000
100000.0000000
100000.0000000
100000.0000000
100000.0000000
100000.0000000
100000.0000000
100000.0000000
100000.0000000
100000.0000000
100000.0000000
100000.0000000
100000.0000000
100000.0000000
100000.0000000
100000.0000000
100000.0000000
100000.0000000
100000.0000000
100000.0000000
100000.0000000
100000.0000000
100000.0000000
1.0000000
200000.0000000
200000.0000000
200000.0000000
200000.0000000
200000.0000000
200000.0000000
200000.0000000
200000.0000000
200000.0000000
200000.0000000
200000.0000000
200000.0000000
200000.0000000
200000.0000000
200000.0000000
200000.0000000
200000.0000000
200000.0000000
200000.0000000
200000.0000000
200000.0000000
200000.0000000
200000.0000000
200000.0000000
200000.0000000
200000.0000000
200000.0000000
200000.0000000
200000.0000000
200000.0000000
200000.0000000
200000.0000000
200000.0000000
200000.0000000
200000.0000000
200000.0000000
200000.0000000
200000.0000000
200000.0000000
200000.0000000
200000.0000000
200000.0000000
200000.0000000
200000.0000000
200000.0000000
200000.0000000
200000.0000000
200000.0000000
200000.0000000
200000.0000000
200000.0000000
200000.0000000
200000.0000000
200000.0000000
200000.0000000
200000.0000000
200000.0000000
200000.0000000
200000.0000000
200000.0000000
200000.0000000
200000.0000000
200000.0000000
200000.0000000
200000.0000000
200000.0000000
200000.0000000
200000.0000000
200000.0000000
200000.0000000
200000.0000000
200000.0000000
200000.0000000
200000.0000000
200000.0000000
200000.0000000
200000.0000000
200000.0000000
200000.0000000
1.0000000
300000.0000000
300000.0000000
300000.0000000
300000.0000000
300000.0000000
300000.0000000
300000.0000000
300000.0000000
300000.0000000
300000.0000000
300000.0000000
300000.0000000
300000.0000000
300000.0000000
300000.0000000
300000.0000000
300000.0000000
300000.0000000
300000.0000000
300000.0000000
300000.0000000
300000.0000000
300000.0000000
300000.0000000
300000.0000000
300000.0000000
300000.0000000
300000.0000000
300000.0000000
300000.0000000
300000.0000000
300000.0000000
300000.0000000
300000.0000000
300000.0000000
300000.0000000
300000.0000000
300000.0000000
300000.0000000
300000.0000000
300000.0000000
300000.0000000
300000.0000000
300000.0000000
300000.0000000
300000.0000000
300000.0000000
300000.0000000
300000.0000000
300000.0000000
300000.0000000
300000.0000000
300000.0000000
300000.0000000
300000.0000000
300000.0000000
300000.0000000
300000.0000000
300000.0000000
300000.0000000
300000.0000000
300000.0000000
300000.0000000
300000.0000000
300000.0000000
300000.0000000
300000.0000000
300000.0000000
300000.0000000
300000.0000000
300000.0000000
300000.0000000
300000.0000000
300000.0000000
300000.0000000
300000.0000000
300000.0000000
300000.0000000
300000.0000000
300000.0000000
300000.0000000
300000.0000000
300000.0000000
300000.0000000
300000.0000000
300000.0000000
300000.0000000
300000.0000000
300000.0000000
300000.0000000
300000.0000000
300000.0000000
300000.0000000
300000.0000000
300000.0000000
300000.0000000
300000.0000000
300000.0000000
300000.0000000
300000.0000000
300000.0000000
300000.0000000
300000.0000000
300000.0000000
300000.0000000
300000.0000000
300000.0000000
300000.0000000
300000.0000000
300000.0000000
300000.0000000
300000.0000000
300000.0000000
300000.0000000
300000.0000000
300000.0000000
300000.0000000
300000.0000000
300000.0000000
300000.0000000
300000.0000000
300000.0000000
300000.0000000
300000.0000000
300000.0000000
300000.0000000
300000.0000000
300000.0000000
300000.0000000
300000.0000000
300000.0000000
